TITLE = "Nozzle Design" 
 VARIABLES = x, y 
ZONE I = 901, J = 77, DATAPACKING = POINT 
DT = (DOUBLE, DOUBLE) 
0.0000000000000000e+00, 	 0.0000000000000000e+00   
1.0000000000000000e-02, 	 0.0000000000000000e+00   
2.0000000000000000e-02, 	 0.0000000000000000e+00   
2.9999999999999999e-02, 	 0.0000000000000000e+00   
4.0000000000000001e-02, 	 0.0000000000000000e+00   
5.0000000000000003e-02, 	 0.0000000000000000e+00   
5.9999999999999998e-02, 	 0.0000000000000000e+00   
7.0000000000000007e-02, 	 0.0000000000000000e+00   
8.0000000000000002e-02, 	 0.0000000000000000e+00   
8.9999999999999997e-02, 	 0.0000000000000000e+00   
1.0000000000000001e-01, 	 0.0000000000000000e+00   
1.1000000000000000e-01, 	 0.0000000000000000e+00   
1.2000000000000000e-01, 	 0.0000000000000000e+00   
1.3000000000000000e-01, 	 0.0000000000000000e+00   
1.4000000000000001e-01, 	 0.0000000000000000e+00   
1.4999999999999999e-01, 	 0.0000000000000000e+00   
1.6000000000000000e-01, 	 0.0000000000000000e+00   
1.7000000000000001e-01, 	 0.0000000000000000e+00   
1.7999999999999999e-01, 	 0.0000000000000000e+00   
1.9000000000000000e-01, 	 0.0000000000000000e+00   
2.0000000000000001e-01, 	 0.0000000000000000e+00   
2.0999999999999999e-01, 	 0.0000000000000000e+00   
2.2000000000000000e-01, 	 0.0000000000000000e+00   
2.3000000000000001e-01, 	 0.0000000000000000e+00   
2.3999999999999999e-01, 	 0.0000000000000000e+00   
2.5000000000000000e-01, 	 0.0000000000000000e+00   
2.6000000000000001e-01, 	 0.0000000000000000e+00   
2.7000000000000002e-01, 	 0.0000000000000000e+00   
2.8000000000000003e-01, 	 0.0000000000000000e+00   
2.8999999999999998e-01, 	 0.0000000000000000e+00   
2.9999999999999999e-01, 	 0.0000000000000000e+00   
3.1000000000000000e-01, 	 0.0000000000000000e+00   
3.2000000000000001e-01, 	 0.0000000000000000e+00   
3.3000000000000002e-01, 	 0.0000000000000000e+00   
3.4000000000000002e-01, 	 0.0000000000000000e+00   
3.4999999999999998e-01, 	 0.0000000000000000e+00   
3.5999999999999999e-01, 	 0.0000000000000000e+00   
3.7000000000000000e-01, 	 0.0000000000000000e+00   
3.8000000000000000e-01, 	 0.0000000000000000e+00   
3.9000000000000001e-01, 	 0.0000000000000000e+00   
4.0000000000000002e-01, 	 0.0000000000000000e+00   
4.0999999999999998e-01, 	 0.0000000000000000e+00   
4.1999999999999998e-01, 	 0.0000000000000000e+00   
4.2999999999999999e-01, 	 0.0000000000000000e+00   
4.4000000000000000e-01, 	 0.0000000000000000e+00   
4.5000000000000001e-01, 	 0.0000000000000000e+00   
4.6000000000000002e-01, 	 0.0000000000000000e+00   
4.6999999999999997e-01, 	 0.0000000000000000e+00   
4.7999999999999998e-01, 	 0.0000000000000000e+00   
4.8999999999999999e-01, 	 0.0000000000000000e+00   
5.0000000000000000e-01, 	 0.0000000000000000e+00   
5.1000000000000001e-01, 	 0.0000000000000000e+00   
5.2000000000000002e-01, 	 0.0000000000000000e+00   
5.3000000000000003e-01, 	 0.0000000000000000e+00   
5.4000000000000004e-01, 	 0.0000000000000000e+00   
5.5000000000000004e-01, 	 0.0000000000000000e+00   
5.6000000000000005e-01, 	 0.0000000000000000e+00   
5.6999999999999995e-01, 	 0.0000000000000000e+00   
5.7999999999999996e-01, 	 0.0000000000000000e+00   
5.8999999999999997e-01, 	 0.0000000000000000e+00   
5.9999999999999998e-01, 	 0.0000000000000000e+00   
6.0999999999999999e-01, 	 0.0000000000000000e+00   
6.2000000000000000e-01, 	 0.0000000000000000e+00   
6.3000000000000000e-01, 	 0.0000000000000000e+00   
6.4000000000000001e-01, 	 0.0000000000000000e+00   
6.5000000000000002e-01, 	 0.0000000000000000e+00   
6.6000000000000003e-01, 	 0.0000000000000000e+00   
6.7000000000000004e-01, 	 0.0000000000000000e+00   
6.8000000000000005e-01, 	 0.0000000000000000e+00   
6.8999999999999995e-01, 	 0.0000000000000000e+00   
6.9999999999999996e-01, 	 0.0000000000000000e+00   
7.0999999999999996e-01, 	 0.0000000000000000e+00   
7.1999999999999997e-01, 	 0.0000000000000000e+00   
7.2999999999999998e-01, 	 0.0000000000000000e+00   
7.3999999999999999e-01, 	 0.0000000000000000e+00   
7.5000000000000000e-01, 	 0.0000000000000000e+00   
7.6000000000000001e-01, 	 0.0000000000000000e+00   
7.7000000000000002e-01, 	 0.0000000000000000e+00   
7.8000000000000003e-01, 	 0.0000000000000000e+00   
7.9000000000000004e-01, 	 0.0000000000000000e+00   
8.0000000000000004e-01, 	 0.0000000000000000e+00   
8.1000000000000005e-01, 	 0.0000000000000000e+00   
8.1999999999999995e-01, 	 0.0000000000000000e+00   
8.2999999999999996e-01, 	 0.0000000000000000e+00   
8.3999999999999997e-01, 	 0.0000000000000000e+00   
8.4999999999999998e-01, 	 0.0000000000000000e+00   
8.5999999999999999e-01, 	 0.0000000000000000e+00   
8.7000000000000000e-01, 	 0.0000000000000000e+00   
8.8000000000000000e-01, 	 0.0000000000000000e+00   
8.9000000000000001e-01, 	 0.0000000000000000e+00   
9.0000000000000002e-01, 	 0.0000000000000000e+00   
9.1000000000000003e-01, 	 0.0000000000000000e+00   
9.2000000000000004e-01, 	 0.0000000000000000e+00   
9.3000000000000005e-01, 	 0.0000000000000000e+00   
9.3999999999999995e-01, 	 0.0000000000000000e+00   
9.4999999999999996e-01, 	 0.0000000000000000e+00   
9.5999999999999996e-01, 	 0.0000000000000000e+00   
9.6999999999999997e-01, 	 0.0000000000000000e+00   
9.7999999999999998e-01, 	 0.0000000000000000e+00   
9.8999999999999999e-01, 	 0.0000000000000000e+00   
1.0000000000000000e+00, 	 0.0000000000000000e+00   
1.0100000000000000e+00, 	 0.0000000000000000e+00   
1.0200000000000000e+00, 	 0.0000000000000000e+00   
1.0300000000000000e+00, 	 0.0000000000000000e+00   
1.0400000000000000e+00, 	 0.0000000000000000e+00   
1.0500000000000000e+00, 	 0.0000000000000000e+00   
1.0600000000000001e+00, 	 0.0000000000000000e+00   
1.0700000000000001e+00, 	 0.0000000000000000e+00   
1.0800000000000001e+00, 	 0.0000000000000000e+00   
1.0900000000000001e+00, 	 0.0000000000000000e+00   
1.1000000000000001e+00, 	 0.0000000000000000e+00   
1.1100000000000001e+00, 	 0.0000000000000000e+00   
1.1200000000000001e+00, 	 0.0000000000000000e+00   
1.1299999999999999e+00, 	 0.0000000000000000e+00   
1.1399999999999999e+00, 	 0.0000000000000000e+00   
1.1499999999999999e+00, 	 0.0000000000000000e+00   
1.1599999999999999e+00, 	 0.0000000000000000e+00   
1.1699999999999999e+00, 	 0.0000000000000000e+00   
1.1799999999999999e+00, 	 0.0000000000000000e+00   
1.1899999999999999e+00, 	 0.0000000000000000e+00   
1.2000000000000000e+00, 	 0.0000000000000000e+00   
1.2100000000000000e+00, 	 0.0000000000000000e+00   
1.2200000000000000e+00, 	 0.0000000000000000e+00   
1.2300000000000000e+00, 	 0.0000000000000000e+00   
1.2400000000000000e+00, 	 0.0000000000000000e+00   
1.2500000000000000e+00, 	 0.0000000000000000e+00   
1.2600000000000000e+00, 	 0.0000000000000000e+00   
1.2700000000000000e+00, 	 0.0000000000000000e+00   
1.2800000000000000e+00, 	 0.0000000000000000e+00   
1.2900000000000000e+00, 	 0.0000000000000000e+00   
1.3000000000000000e+00, 	 0.0000000000000000e+00   
1.3100000000000001e+00, 	 0.0000000000000000e+00   
1.3200000000000001e+00, 	 0.0000000000000000e+00   
1.3300000000000001e+00, 	 0.0000000000000000e+00   
1.3400000000000001e+00, 	 0.0000000000000000e+00   
1.3500000000000001e+00, 	 0.0000000000000000e+00   
1.3600000000000001e+00, 	 0.0000000000000000e+00   
1.3700000000000001e+00, 	 0.0000000000000000e+00   
1.3799999999999999e+00, 	 0.0000000000000000e+00   
1.3899999999999999e+00, 	 0.0000000000000000e+00   
1.3999999999999999e+00, 	 0.0000000000000000e+00   
1.4099999999999999e+00, 	 0.0000000000000000e+00   
1.4199999999999999e+00, 	 0.0000000000000000e+00   
1.4299999999999999e+00, 	 0.0000000000000000e+00   
1.4399999999999999e+00, 	 0.0000000000000000e+00   
1.4500000000000000e+00, 	 0.0000000000000000e+00   
1.4600000000000000e+00, 	 0.0000000000000000e+00   
1.4700000000000000e+00, 	 0.0000000000000000e+00   
1.4800000000000000e+00, 	 0.0000000000000000e+00   
1.4900000000000000e+00, 	 0.0000000000000000e+00   
1.5000000000000000e+00, 	 0.0000000000000000e+00   
1.5100000000000000e+00, 	 0.0000000000000000e+00   
1.5200000000000000e+00, 	 0.0000000000000000e+00   
1.5300000000000000e+00, 	 0.0000000000000000e+00   
1.5400000000000000e+00, 	 0.0000000000000000e+00   
1.5500000000000000e+00, 	 0.0000000000000000e+00   
1.5600000000000001e+00, 	 0.0000000000000000e+00   
1.5700000000000001e+00, 	 0.0000000000000000e+00   
1.5800000000000001e+00, 	 0.0000000000000000e+00   
1.5900000000000001e+00, 	 0.0000000000000000e+00   
1.6000000000000001e+00, 	 0.0000000000000000e+00   
1.6100000000000001e+00, 	 0.0000000000000000e+00   
1.6200000000000001e+00, 	 0.0000000000000000e+00   
1.6299999999999999e+00, 	 0.0000000000000000e+00   
1.6399999999999999e+00, 	 0.0000000000000000e+00   
1.6499999999999999e+00, 	 0.0000000000000000e+00   
1.6599999999999999e+00, 	 0.0000000000000000e+00   
1.6699999999999999e+00, 	 0.0000000000000000e+00   
1.6799999999999999e+00, 	 0.0000000000000000e+00   
1.6899999999999999e+00, 	 0.0000000000000000e+00   
1.7000000000000000e+00, 	 0.0000000000000000e+00   
1.7100000000000000e+00, 	 0.0000000000000000e+00   
1.7200000000000000e+00, 	 0.0000000000000000e+00   
1.7300000000000000e+00, 	 0.0000000000000000e+00   
1.7400000000000000e+00, 	 0.0000000000000000e+00   
1.7500000000000000e+00, 	 0.0000000000000000e+00   
1.7600000000000000e+00, 	 0.0000000000000000e+00   
1.7700000000000000e+00, 	 0.0000000000000000e+00   
1.7800000000000000e+00, 	 0.0000000000000000e+00   
1.7900000000000000e+00, 	 0.0000000000000000e+00   
1.8000000000000000e+00, 	 0.0000000000000000e+00   
1.8100000000000001e+00, 	 0.0000000000000000e+00   
1.8200000000000001e+00, 	 0.0000000000000000e+00   
1.8300000000000001e+00, 	 0.0000000000000000e+00   
1.8400000000000001e+00, 	 0.0000000000000000e+00   
1.8500000000000001e+00, 	 0.0000000000000000e+00   
1.8600000000000001e+00, 	 0.0000000000000000e+00   
1.8700000000000001e+00, 	 0.0000000000000000e+00   
1.8799999999999999e+00, 	 0.0000000000000000e+00   
1.8899999999999999e+00, 	 0.0000000000000000e+00   
1.8999999999999999e+00, 	 0.0000000000000000e+00   
1.9099999999999999e+00, 	 0.0000000000000000e+00   
1.9199999999999999e+00, 	 0.0000000000000000e+00   
1.9299999999999999e+00, 	 0.0000000000000000e+00   
1.9399999999999999e+00, 	 0.0000000000000000e+00   
1.9500000000000000e+00, 	 0.0000000000000000e+00   
1.9600000000000000e+00, 	 0.0000000000000000e+00   
1.9700000000000000e+00, 	 0.0000000000000000e+00   
1.9800000000000000e+00, 	 0.0000000000000000e+00   
1.9900000000000000e+00, 	 0.0000000000000000e+00   
2.0000000000000000e+00, 	 0.0000000000000000e+00   
2.0099999999999998e+00, 	 0.0000000000000000e+00   
2.0200000000000000e+00, 	 0.0000000000000000e+00   
2.0299999999999998e+00, 	 0.0000000000000000e+00   
2.0400000000000000e+00, 	 0.0000000000000000e+00   
2.0499999999999998e+00, 	 0.0000000000000000e+00   
2.0600000000000001e+00, 	 0.0000000000000000e+00   
2.0699999999999998e+00, 	 0.0000000000000000e+00   
2.0800000000000001e+00, 	 0.0000000000000000e+00   
2.0899999999999999e+00, 	 0.0000000000000000e+00   
2.1000000000000001e+00, 	 0.0000000000000000e+00   
2.1099999999999999e+00, 	 0.0000000000000000e+00   
2.1200000000000001e+00, 	 0.0000000000000000e+00   
2.1299999999999999e+00, 	 0.0000000000000000e+00   
2.1400000000000001e+00, 	 0.0000000000000000e+00   
2.1499999999999999e+00, 	 0.0000000000000000e+00   
2.1600000000000001e+00, 	 0.0000000000000000e+00   
2.1699999999999999e+00, 	 0.0000000000000000e+00   
2.1800000000000002e+00, 	 0.0000000000000000e+00   
2.1899999999999999e+00, 	 0.0000000000000000e+00   
2.2000000000000002e+00, 	 0.0000000000000000e+00   
2.2100000000000000e+00, 	 0.0000000000000000e+00   
2.2200000000000002e+00, 	 0.0000000000000000e+00   
2.2300000000000000e+00, 	 0.0000000000000000e+00   
2.2400000000000002e+00, 	 0.0000000000000000e+00   
2.2500000000000000e+00, 	 0.0000000000000000e+00   
2.2599999999999998e+00, 	 0.0000000000000000e+00   
2.2700000000000000e+00, 	 0.0000000000000000e+00   
2.2799999999999998e+00, 	 0.0000000000000000e+00   
2.2900000000000000e+00, 	 0.0000000000000000e+00   
2.2999999999999998e+00, 	 0.0000000000000000e+00   
2.3100000000000001e+00, 	 0.0000000000000000e+00   
2.3199999999999998e+00, 	 0.0000000000000000e+00   
2.3300000000000001e+00, 	 0.0000000000000000e+00   
2.3399999999999999e+00, 	 0.0000000000000000e+00   
2.3500000000000001e+00, 	 0.0000000000000000e+00   
2.3599999999999999e+00, 	 0.0000000000000000e+00   
2.3700000000000001e+00, 	 0.0000000000000000e+00   
2.3799999999999999e+00, 	 0.0000000000000000e+00   
2.3900000000000001e+00, 	 0.0000000000000000e+00   
2.3999999999999999e+00, 	 0.0000000000000000e+00   
2.4100000000000001e+00, 	 0.0000000000000000e+00   
2.4199999999999999e+00, 	 0.0000000000000000e+00   
2.4300000000000002e+00, 	 0.0000000000000000e+00   
2.4399999999999999e+00, 	 0.0000000000000000e+00   
2.4500000000000002e+00, 	 0.0000000000000000e+00   
2.4600000000000000e+00, 	 0.0000000000000000e+00   
2.4700000000000002e+00, 	 0.0000000000000000e+00   
2.4800000000000000e+00, 	 0.0000000000000000e+00   
2.4900000000000002e+00, 	 0.0000000000000000e+00   
2.5000000000000000e+00, 	 0.0000000000000000e+00   
2.5099999999999998e+00, 	 0.0000000000000000e+00   
2.5200000000000000e+00, 	 0.0000000000000000e+00   
2.5299999999999998e+00, 	 0.0000000000000000e+00   
2.5400000000000000e+00, 	 0.0000000000000000e+00   
2.5499999999999998e+00, 	 0.0000000000000000e+00   
2.5600000000000001e+00, 	 0.0000000000000000e+00   
2.5699999999999998e+00, 	 0.0000000000000000e+00   
2.5800000000000001e+00, 	 0.0000000000000000e+00   
2.5899999999999999e+00, 	 0.0000000000000000e+00   
2.6000000000000001e+00, 	 0.0000000000000000e+00   
2.6099999999999999e+00, 	 0.0000000000000000e+00   
2.6200000000000001e+00, 	 0.0000000000000000e+00   
2.6299999999999999e+00, 	 0.0000000000000000e+00   
2.6400000000000001e+00, 	 0.0000000000000000e+00   
2.6499999999999999e+00, 	 0.0000000000000000e+00   
2.6600000000000001e+00, 	 0.0000000000000000e+00   
2.6699999999999999e+00, 	 0.0000000000000000e+00   
2.6800000000000002e+00, 	 0.0000000000000000e+00   
2.6899999999999999e+00, 	 0.0000000000000000e+00   
2.7000000000000002e+00, 	 0.0000000000000000e+00   
2.7100000000000000e+00, 	 0.0000000000000000e+00   
2.7200000000000002e+00, 	 0.0000000000000000e+00   
2.7300000000000000e+00, 	 0.0000000000000000e+00   
2.7400000000000002e+00, 	 0.0000000000000000e+00   
2.7500000000000000e+00, 	 0.0000000000000000e+00   
2.7599999999999998e+00, 	 0.0000000000000000e+00   
2.7700000000000000e+00, 	 0.0000000000000000e+00   
2.7799999999999998e+00, 	 0.0000000000000000e+00   
2.7900000000000000e+00, 	 0.0000000000000000e+00   
2.7999999999999998e+00, 	 0.0000000000000000e+00   
2.8100000000000001e+00, 	 0.0000000000000000e+00   
2.8199999999999998e+00, 	 0.0000000000000000e+00   
2.8300000000000001e+00, 	 0.0000000000000000e+00   
2.8399999999999999e+00, 	 0.0000000000000000e+00   
2.8500000000000001e+00, 	 0.0000000000000000e+00   
2.8599999999999999e+00, 	 0.0000000000000000e+00   
2.8700000000000001e+00, 	 0.0000000000000000e+00   
2.8799999999999999e+00, 	 0.0000000000000000e+00   
2.8900000000000001e+00, 	 0.0000000000000000e+00   
2.8999999999999999e+00, 	 0.0000000000000000e+00   
2.9100000000000001e+00, 	 0.0000000000000000e+00   
2.9199999999999999e+00, 	 0.0000000000000000e+00   
2.9300000000000002e+00, 	 0.0000000000000000e+00   
2.9399999999999999e+00, 	 0.0000000000000000e+00   
2.9500000000000002e+00, 	 0.0000000000000000e+00   
2.9600000000000000e+00, 	 0.0000000000000000e+00   
2.9700000000000002e+00, 	 0.0000000000000000e+00   
2.9800000000000000e+00, 	 0.0000000000000000e+00   
2.9900000000000002e+00, 	 0.0000000000000000e+00   
3.0000000000000000e+00, 	 0.0000000000000000e+00   
3.0099999999999998e+00, 	 0.0000000000000000e+00   
3.0200000000000000e+00, 	 0.0000000000000000e+00   
3.0299999999999998e+00, 	 0.0000000000000000e+00   
3.0400000000000000e+00, 	 0.0000000000000000e+00   
3.0499999999999998e+00, 	 0.0000000000000000e+00   
3.0600000000000001e+00, 	 0.0000000000000000e+00   
3.0699999999999998e+00, 	 0.0000000000000000e+00   
3.0800000000000001e+00, 	 0.0000000000000000e+00   
3.0899999999999999e+00, 	 0.0000000000000000e+00   
3.1000000000000001e+00, 	 0.0000000000000000e+00   
3.1099999999999999e+00, 	 0.0000000000000000e+00   
3.1200000000000001e+00, 	 0.0000000000000000e+00   
3.1299999999999999e+00, 	 0.0000000000000000e+00   
3.1400000000000001e+00, 	 0.0000000000000000e+00   
3.1499999999999999e+00, 	 0.0000000000000000e+00   
3.1600000000000001e+00, 	 0.0000000000000000e+00   
3.1699999999999999e+00, 	 0.0000000000000000e+00   
3.1800000000000002e+00, 	 0.0000000000000000e+00   
3.1899999999999999e+00, 	 0.0000000000000000e+00   
3.2000000000000002e+00, 	 0.0000000000000000e+00   
3.2100000000000000e+00, 	 0.0000000000000000e+00   
3.2200000000000002e+00, 	 0.0000000000000000e+00   
3.2300000000000000e+00, 	 0.0000000000000000e+00   
3.2400000000000002e+00, 	 0.0000000000000000e+00   
3.2500000000000000e+00, 	 0.0000000000000000e+00   
3.2599999999999998e+00, 	 0.0000000000000000e+00   
3.2700000000000000e+00, 	 0.0000000000000000e+00   
3.2799999999999998e+00, 	 0.0000000000000000e+00   
3.2900000000000000e+00, 	 0.0000000000000000e+00   
3.2999999999999998e+00, 	 0.0000000000000000e+00   
3.3100000000000001e+00, 	 0.0000000000000000e+00   
3.3199999999999998e+00, 	 0.0000000000000000e+00   
3.3300000000000001e+00, 	 0.0000000000000000e+00   
3.3399999999999999e+00, 	 0.0000000000000000e+00   
3.3500000000000001e+00, 	 0.0000000000000000e+00   
3.3599999999999999e+00, 	 0.0000000000000000e+00   
3.3700000000000001e+00, 	 0.0000000000000000e+00   
3.3799999999999999e+00, 	 0.0000000000000000e+00   
3.3900000000000001e+00, 	 0.0000000000000000e+00   
3.3999999999999999e+00, 	 0.0000000000000000e+00   
3.4100000000000001e+00, 	 0.0000000000000000e+00   
3.4199999999999999e+00, 	 0.0000000000000000e+00   
3.4300000000000002e+00, 	 0.0000000000000000e+00   
3.4399999999999999e+00, 	 0.0000000000000000e+00   
3.4500000000000002e+00, 	 0.0000000000000000e+00   
3.4600000000000000e+00, 	 0.0000000000000000e+00   
3.4700000000000002e+00, 	 0.0000000000000000e+00   
3.4800000000000000e+00, 	 0.0000000000000000e+00   
3.4900000000000002e+00, 	 0.0000000000000000e+00   
3.5000000000000000e+00, 	 0.0000000000000000e+00   
3.5099999999999998e+00, 	 0.0000000000000000e+00   
3.5200000000000000e+00, 	 0.0000000000000000e+00   
3.5299999999999998e+00, 	 0.0000000000000000e+00   
3.5400000000000000e+00, 	 0.0000000000000000e+00   
3.5499999999999998e+00, 	 0.0000000000000000e+00   
3.5600000000000001e+00, 	 0.0000000000000000e+00   
3.5699999999999998e+00, 	 0.0000000000000000e+00   
3.5800000000000001e+00, 	 0.0000000000000000e+00   
3.5899999999999999e+00, 	 0.0000000000000000e+00   
3.6000000000000001e+00, 	 0.0000000000000000e+00   
3.6099999999999999e+00, 	 0.0000000000000000e+00   
3.6200000000000001e+00, 	 0.0000000000000000e+00   
3.6299999999999999e+00, 	 0.0000000000000000e+00   
3.6400000000000001e+00, 	 0.0000000000000000e+00   
3.6499999999999999e+00, 	 0.0000000000000000e+00   
3.6600000000000001e+00, 	 0.0000000000000000e+00   
3.6699999999999999e+00, 	 0.0000000000000000e+00   
3.6800000000000002e+00, 	 0.0000000000000000e+00   
3.6899999999999999e+00, 	 0.0000000000000000e+00   
3.7000000000000002e+00, 	 0.0000000000000000e+00   
3.7100000000000000e+00, 	 0.0000000000000000e+00   
3.7200000000000002e+00, 	 0.0000000000000000e+00   
3.7300000000000000e+00, 	 0.0000000000000000e+00   
3.7400000000000002e+00, 	 0.0000000000000000e+00   
3.7500000000000000e+00, 	 0.0000000000000000e+00   
3.7599999999999998e+00, 	 0.0000000000000000e+00   
3.7700000000000000e+00, 	 0.0000000000000000e+00   
3.7799999999999998e+00, 	 0.0000000000000000e+00   
3.7900000000000000e+00, 	 0.0000000000000000e+00   
3.7999999999999998e+00, 	 0.0000000000000000e+00   
3.8100000000000001e+00, 	 0.0000000000000000e+00   
3.8199999999999998e+00, 	 0.0000000000000000e+00   
3.8300000000000001e+00, 	 0.0000000000000000e+00   
3.8399999999999999e+00, 	 0.0000000000000000e+00   
3.8500000000000001e+00, 	 0.0000000000000000e+00   
3.8599999999999999e+00, 	 0.0000000000000000e+00   
3.8700000000000001e+00, 	 0.0000000000000000e+00   
3.8799999999999999e+00, 	 0.0000000000000000e+00   
3.8900000000000001e+00, 	 0.0000000000000000e+00   
3.8999999999999999e+00, 	 0.0000000000000000e+00   
3.9100000000000001e+00, 	 0.0000000000000000e+00   
3.9199999999999999e+00, 	 0.0000000000000000e+00   
3.9300000000000002e+00, 	 0.0000000000000000e+00   
3.9399999999999999e+00, 	 0.0000000000000000e+00   
3.9500000000000002e+00, 	 0.0000000000000000e+00   
3.9600000000000000e+00, 	 0.0000000000000000e+00   
3.9700000000000002e+00, 	 0.0000000000000000e+00   
3.9800000000000000e+00, 	 0.0000000000000000e+00   
3.9900000000000002e+00, 	 0.0000000000000000e+00   
4.0000000000000000e+00, 	 0.0000000000000000e+00   
4.0099999999999998e+00, 	 0.0000000000000000e+00   
4.0199999999999996e+00, 	 0.0000000000000000e+00   
4.0300000000000002e+00, 	 0.0000000000000000e+00   
4.0400000000000000e+00, 	 0.0000000000000000e+00   
4.0499999999999998e+00, 	 0.0000000000000000e+00   
4.0599999999999996e+00, 	 0.0000000000000000e+00   
4.0700000000000003e+00, 	 0.0000000000000000e+00   
4.0800000000000001e+00, 	 0.0000000000000000e+00   
4.0899999999999999e+00, 	 0.0000000000000000e+00   
4.0999999999999996e+00, 	 0.0000000000000000e+00   
4.1100000000000003e+00, 	 0.0000000000000000e+00   
4.1200000000000001e+00, 	 0.0000000000000000e+00   
4.1299999999999999e+00, 	 0.0000000000000000e+00   
4.1399999999999997e+00, 	 0.0000000000000000e+00   
4.1500000000000004e+00, 	 0.0000000000000000e+00   
4.1600000000000001e+00, 	 0.0000000000000000e+00   
4.1699999999999999e+00, 	 0.0000000000000000e+00   
4.1799999999999997e+00, 	 0.0000000000000000e+00   
4.1900000000000004e+00, 	 0.0000000000000000e+00   
4.2000000000000002e+00, 	 0.0000000000000000e+00   
4.2100000000000000e+00, 	 0.0000000000000000e+00   
4.2199999999999998e+00, 	 0.0000000000000000e+00   
4.2300000000000004e+00, 	 0.0000000000000000e+00   
4.2400000000000002e+00, 	 0.0000000000000000e+00   
4.2500000000000000e+00, 	 0.0000000000000000e+00   
4.2599999999999998e+00, 	 0.0000000000000000e+00   
4.2699999999999996e+00, 	 0.0000000000000000e+00   
4.2800000000000002e+00, 	 0.0000000000000000e+00   
4.2900000000000000e+00, 	 0.0000000000000000e+00   
4.2999999999999998e+00, 	 0.0000000000000000e+00   
4.3099999999999996e+00, 	 0.0000000000000000e+00   
4.3200000000000003e+00, 	 0.0000000000000000e+00   
4.3300000000000001e+00, 	 0.0000000000000000e+00   
4.3399999999999999e+00, 	 0.0000000000000000e+00   
4.3499999999999996e+00, 	 0.0000000000000000e+00   
4.3600000000000003e+00, 	 0.0000000000000000e+00   
4.3700000000000001e+00, 	 0.0000000000000000e+00   
4.3799999999999999e+00, 	 0.0000000000000000e+00   
4.3899999999999997e+00, 	 0.0000000000000000e+00   
4.4000000000000004e+00, 	 0.0000000000000000e+00   
4.4100000000000001e+00, 	 0.0000000000000000e+00   
4.4199999999999999e+00, 	 0.0000000000000000e+00   
4.4299999999999997e+00, 	 0.0000000000000000e+00   
4.4400000000000004e+00, 	 0.0000000000000000e+00   
4.4500000000000002e+00, 	 0.0000000000000000e+00   
4.4600000000000000e+00, 	 0.0000000000000000e+00   
4.4699999999999998e+00, 	 0.0000000000000000e+00   
4.4800000000000004e+00, 	 0.0000000000000000e+00   
4.4900000000000002e+00, 	 0.0000000000000000e+00   
4.5000000000000000e+00, 	 0.0000000000000000e+00   
4.5099999999999998e+00, 	 0.0000000000000000e+00   
4.5199999999999996e+00, 	 0.0000000000000000e+00   
4.5300000000000002e+00, 	 0.0000000000000000e+00   
4.5400000000000000e+00, 	 0.0000000000000000e+00   
4.5499999999999998e+00, 	 0.0000000000000000e+00   
4.5599999999999996e+00, 	 0.0000000000000000e+00   
4.5700000000000003e+00, 	 0.0000000000000000e+00   
4.5800000000000001e+00, 	 0.0000000000000000e+00   
4.5899999999999999e+00, 	 0.0000000000000000e+00   
4.5999999999999996e+00, 	 0.0000000000000000e+00   
4.6100000000000003e+00, 	 0.0000000000000000e+00   
4.6200000000000001e+00, 	 0.0000000000000000e+00   
4.6299999999999999e+00, 	 0.0000000000000000e+00   
4.6399999999999997e+00, 	 0.0000000000000000e+00   
4.6500000000000004e+00, 	 0.0000000000000000e+00   
4.6600000000000001e+00, 	 0.0000000000000000e+00   
4.6699999999999999e+00, 	 0.0000000000000000e+00   
4.6799999999999997e+00, 	 0.0000000000000000e+00   
4.6900000000000004e+00, 	 0.0000000000000000e+00   
4.7000000000000002e+00, 	 0.0000000000000000e+00   
4.7100000000000000e+00, 	 0.0000000000000000e+00   
4.7199999999999998e+00, 	 0.0000000000000000e+00   
4.7300000000000004e+00, 	 0.0000000000000000e+00   
4.7400000000000002e+00, 	 0.0000000000000000e+00   
4.7500000000000000e+00, 	 0.0000000000000000e+00   
4.7599999999999998e+00, 	 0.0000000000000000e+00   
4.7699999999999996e+00, 	 0.0000000000000000e+00   
4.7800000000000002e+00, 	 0.0000000000000000e+00   
4.7900000000000000e+00, 	 0.0000000000000000e+00   
4.7999999999999998e+00, 	 0.0000000000000000e+00   
4.8099999999999996e+00, 	 0.0000000000000000e+00   
4.8200000000000003e+00, 	 0.0000000000000000e+00   
4.8300000000000001e+00, 	 0.0000000000000000e+00   
4.8399999999999999e+00, 	 0.0000000000000000e+00   
4.8499999999999996e+00, 	 0.0000000000000000e+00   
4.8600000000000003e+00, 	 0.0000000000000000e+00   
4.8700000000000001e+00, 	 0.0000000000000000e+00   
4.8799999999999999e+00, 	 0.0000000000000000e+00   
4.8899999999999997e+00, 	 0.0000000000000000e+00   
4.9000000000000004e+00, 	 0.0000000000000000e+00   
4.9100000000000001e+00, 	 0.0000000000000000e+00   
4.9199999999999999e+00, 	 0.0000000000000000e+00   
4.9299999999999997e+00, 	 0.0000000000000000e+00   
4.9400000000000004e+00, 	 0.0000000000000000e+00   
4.9500000000000002e+00, 	 0.0000000000000000e+00   
4.9600000000000000e+00, 	 0.0000000000000000e+00   
4.9699999999999998e+00, 	 0.0000000000000000e+00   
4.9800000000000004e+00, 	 0.0000000000000000e+00   
4.9900000000000002e+00, 	 0.0000000000000000e+00   
5.0000000000000000e+00, 	 0.0000000000000000e+00   
5.0099999999999998e+00, 	 0.0000000000000000e+00   
5.0199999999999996e+00, 	 0.0000000000000000e+00   
5.0300000000000002e+00, 	 0.0000000000000000e+00   
5.0400000000000000e+00, 	 0.0000000000000000e+00   
5.0499999999999998e+00, 	 0.0000000000000000e+00   
5.0599999999999996e+00, 	 0.0000000000000000e+00   
5.0700000000000003e+00, 	 0.0000000000000000e+00   
5.0800000000000001e+00, 	 0.0000000000000000e+00   
5.0899999999999999e+00, 	 0.0000000000000000e+00   
5.0999999999999996e+00, 	 0.0000000000000000e+00   
5.1100000000000003e+00, 	 0.0000000000000000e+00   
5.1200000000000001e+00, 	 0.0000000000000000e+00   
5.1299999999999999e+00, 	 0.0000000000000000e+00   
5.1399999999999997e+00, 	 0.0000000000000000e+00   
5.1500000000000004e+00, 	 0.0000000000000000e+00   
5.1600000000000001e+00, 	 0.0000000000000000e+00   
5.1699999999999999e+00, 	 0.0000000000000000e+00   
5.1799999999999997e+00, 	 0.0000000000000000e+00   
5.1900000000000004e+00, 	 0.0000000000000000e+00   
5.2000000000000002e+00, 	 0.0000000000000000e+00   
5.2100000000000000e+00, 	 0.0000000000000000e+00   
5.2199999999999998e+00, 	 0.0000000000000000e+00   
5.2300000000000004e+00, 	 0.0000000000000000e+00   
5.2400000000000002e+00, 	 0.0000000000000000e+00   
5.2500000000000000e+00, 	 0.0000000000000000e+00   
5.2599999999999998e+00, 	 0.0000000000000000e+00   
5.2699999999999996e+00, 	 0.0000000000000000e+00   
5.2800000000000002e+00, 	 0.0000000000000000e+00   
5.2900000000000000e+00, 	 0.0000000000000000e+00   
5.2999999999999998e+00, 	 0.0000000000000000e+00   
5.3099999999999996e+00, 	 0.0000000000000000e+00   
5.3200000000000003e+00, 	 0.0000000000000000e+00   
5.3300000000000001e+00, 	 0.0000000000000000e+00   
5.3399999999999999e+00, 	 0.0000000000000000e+00   
5.3499999999999996e+00, 	 0.0000000000000000e+00   
5.3600000000000003e+00, 	 0.0000000000000000e+00   
5.3700000000000001e+00, 	 0.0000000000000000e+00   
5.3799999999999999e+00, 	 0.0000000000000000e+00   
5.3899999999999997e+00, 	 0.0000000000000000e+00   
5.4000000000000004e+00, 	 0.0000000000000000e+00   
5.4100000000000001e+00, 	 0.0000000000000000e+00   
5.4199999999999999e+00, 	 0.0000000000000000e+00   
5.4299999999999997e+00, 	 0.0000000000000000e+00   
5.4400000000000004e+00, 	 0.0000000000000000e+00   
5.4500000000000002e+00, 	 0.0000000000000000e+00   
5.4600000000000000e+00, 	 0.0000000000000000e+00   
5.4699999999999998e+00, 	 0.0000000000000000e+00   
5.4800000000000004e+00, 	 0.0000000000000000e+00   
5.4900000000000002e+00, 	 0.0000000000000000e+00   
5.5000000000000000e+00, 	 0.0000000000000000e+00   
5.5099999999999998e+00, 	 0.0000000000000000e+00   
5.5199999999999996e+00, 	 0.0000000000000000e+00   
5.5300000000000002e+00, 	 0.0000000000000000e+00   
5.5400000000000000e+00, 	 0.0000000000000000e+00   
5.5499999999999998e+00, 	 0.0000000000000000e+00   
5.5599999999999996e+00, 	 0.0000000000000000e+00   
5.5700000000000003e+00, 	 0.0000000000000000e+00   
5.5800000000000001e+00, 	 0.0000000000000000e+00   
5.5899999999999999e+00, 	 0.0000000000000000e+00   
5.5999999999999996e+00, 	 0.0000000000000000e+00   
5.6100000000000003e+00, 	 0.0000000000000000e+00   
5.6200000000000001e+00, 	 0.0000000000000000e+00   
5.6299999999999999e+00, 	 0.0000000000000000e+00   
5.6399999999999997e+00, 	 0.0000000000000000e+00   
5.6500000000000004e+00, 	 0.0000000000000000e+00   
5.6600000000000001e+00, 	 0.0000000000000000e+00   
5.6699999999999999e+00, 	 0.0000000000000000e+00   
5.6799999999999997e+00, 	 0.0000000000000000e+00   
5.6900000000000004e+00, 	 0.0000000000000000e+00   
5.7000000000000002e+00, 	 0.0000000000000000e+00   
5.7100000000000000e+00, 	 0.0000000000000000e+00   
5.7199999999999998e+00, 	 0.0000000000000000e+00   
5.7300000000000004e+00, 	 0.0000000000000000e+00   